{"cards":[
  {
   "Individual": "Boron",
   "Melting Point (degrees C)": 2077,
   "Density (kg/m cubed)": 2340,
   "Price (Pounds Sterling per 100g)": 150,
   "Discovery Date": 1808,
   "Size of Atom (pm)": 384,
   "Symbol": "B",
   "Atomic Number": 5,
   "Subcategory in metal-metalloid-nonmetal trend": "Metalloid"
  },
  {
    "Individual": "Carbon",
    "Melting Point (degrees C)": 4489,
    "Density (kg/m cubed)": 2260,
    "Price (Pounds Sterling per 100g)": 1.2,
    "Discovery Date": "30,000 BC",
    "Size of Atom (pm)": 340,
    "Symbol": "C",
    "Atomic Number": 6,
    "Subcategory in metal-metalloid-nonmetal trend": "Polyatomic Nonmetal"
  },
  {
    "Individual": "Lithium",
    "Melting Point (degrees C)": 181,
    "Density (kg/m cubed)": 534,
    "Price (Pounds Sterling per 100g)": 110,
    "Discovery Date": 1817,
    "Size of Atom (pm)": 364,
    "Symbol": "Li",
    "Atomic Number": 3,
    "Subcategory in metal-metalloid-nonmetal trend": "Alkali Metal"
  },
  {
    "Individual": "Bromine",
    "Melting Point (degrees C)": -7,
    "Density (kg/m cubed)": 3122,
    "Price (Pounds Sterling per 100g)": 2.6,
    "Discovery Date": 1826,
    "Size of Atom (pm)": 370,
    "Symbol": "Br",
    "Atomic Number": 35,
    "Subcategory in metal-metalloid-nonmetal trend": "Diatomic Nonmetal"
  },
  {
    "Individual": "Cadmium",
    "Melting Point (degrees C)": 321,
    "Density (kg/m cubed)": 8650,
    "Price (Pounds Sterling per 100g)": 24,
    "Discovery Date": 1817,
    "Size of Atom (pm)": 436,
    "Symbol": "Cd",
    "Atomic Number": 48,
    "Subcategory in metal-metalloid-nonmetal trend": "Transition Metal"
  },
  {
    "Individual": "Caesium",
    "Melting Point (degrees C)": 29,
    "Density (kg/m cubed)": 1873,
    "Price (Pounds Sterling per 100g)": 3400,
    "Discovery Date": 1860,
    "Size of Atom (pm)": 686,
    "Symbol": "Cs",
    "Atomic Number": 55,
    "Subcategory in metal-metalloid-nonmetal trend": "Alkali Metal"
  },
  {
    "Individual": "Silver",
    "Melting Point (degrees C)": 962,
    "Density (kg/m cubed)": 10500,
    "Price (Pounds Sterling per 100g)": 310,
    "Discovery Date": "3,000 BC",
    "Size of Atom (pm)": 422,
    "Symbol": "Ag",
    "Atomic Number": 47,
    "Subcategory in metal-metalloid-nonmetal trend": "Transition Metal"
  },
  {
    "Individual": "Hydrogen",
    "Melting Point (degrees C)": -259,
    "Density (kg/m cubed)": 0.1,
    "Price (Pounds Sterling per 100g)": 68,
    "Discovery Date": 1766,
    "Size of Atom (pm)": 220,
    "Symbol": "H",
    "Atomic Number": 1,
    "Subcategory in metal-metalloid-nonmetal trend": "Diatomic Nonmetal"
  },
  {
    "Individual": "Helium",
    "Melting Point (degrees C)": -271,
    "Density (kg/m cubed)": 0.2,
    "Price (Pounds Sterling per 100g)": 48,
    "Discovery Date": 1895,
    "Size of Atom (pm)": 280,
    "Symbol": "He",
    "Atomic Number": 2,
    "Subcategory in metal-metalloid-nonmetal trend": "Noble Gas"
  },
  {
    "Individual": "Nitrogen",
    "Melting Point (degrees C)": -210,
    "Density (kg/m cubed)": 1.1,
    "Price (Pounds Sterling per 100g)": 13,
    "Discovery Date": 1772,
    "Size of Atom (pm)": 310,
    "Symbol": "N",
    "Atomic Number": 7,
    "Subcategory in metal-metalloid-nonmetal trend": "Diatomic Nonmetal"
  },
  {
    "Individual": "Oxygen",
    "Melting Point (degrees C)": -219,
    "Density (kg/m cubed)": 1.3,
    "Price (Pounds Sterling per 100g)": 7.6,
    "Discovery Date": 1774,
    "Size of Atom (pm)": 304,
    "Symbol": "O",
    "Atomic Number": 8,
    "Subcategory in metal-metalloid-nonmetal trend": "Diatomic Nonmetal"
  },
  {
    "Individual": "Fluorine",
    "Melting Point (degrees C)": -220,
    "Density (kg/m cubed)": 1.6,
    "Price (Pounds Sterling per 100g)": 99,
    "Discovery Date": 1886,
    "Size of Atom (pm)": 294,
    "Symbol": "F",
    "Atomic Number": 9,
    "Subcategory in metal-metalloid-nonmetal trend": "Diatomic Nonmetal"
  },
  {
    "Individual": "Neon",
    "Melting Point (degrees C)": -249,
    "Density (kg/m cubed)": 0.8,
    "Price (Pounds Sterling per 100g)": 140,
    "Discovery Date": 1898,
    "Size of Atom (pm)": 308,
    "Symbol": "Ne",
    "Atomic Number": 10,
    "Subcategory in metal-metalloid-nonmetal trend": "Noble Gas"
  },
  {
    "Individual": "Sodium",
    "Melting Point (degrees C)": 98,
    "Density (kg/m cubed)": 971,
    "Price (Pounds Sterling per 100g)": 7,
    "Discovery Date": 1807,
    "Size of Atom (pm)": 454,
    "Symbol": "Na",
    "Atomic Number": 11,
    "Subcategory in metal-metalloid-nonmetal trend": "Alkali Metal"
  },
  {
    "Individual": "Aluminium",
    "Melting Point (degrees C)": 660,
    "Density (kg/m cubed)": 2698,
    "Price (Pounds Sterling per 100g)": 2.6,
    "Discovery Date": 1825,
    "Size of Atom (pm)": 368,
    "Symbol": "Al",
    "Atomic Number": 13,
    "Subcategory in metal-metalloid-nonmetal trend": "Post-transition Metal"
  },
  {
    "Individual": "Magnesium",
    "Melting Point (degrees C)": 650,
    "Density (kg/m cubed)": 1738,
    "Price (Pounds Sterling per 100g)": 3.3,
    "Discovery Date": 1755,
    "Size of Atom (pm)": 346,
    "Symbol": "Mg",
    "Atomic Number": 12,
    "Subcategory in metal-metalloid-nonmetal trend": "Alkaline Earth Metal"
  },
  {
    "Individual": "Silicon",
    "Melting Point (degrees C)": 1414,
    "Density (kg/m cubed)": 2329,
    "Price (Pounds Sterling per 100g)": 16,
    "Discovery Date": 1824,
    "Size of Atom (pm)": 420,
    "Symbol": "Si",
    "Atomic Number": 14,
    "Subcategory in metal-metalloid-nonmetal trend": "Metalloid"
  },
  {
    "Individual": "Phosphorus",
    "Melting Point (degrees C)": 579,
    "Density (kg/m cubed)": 2200,
    "Price (Pounds Sterling per 100g)": 5.3,
    "Discovery Date": 1669,
    "Size of Atom (pm)": 360,
    "Symbol": "P",
    "Atomic Number": 15,
    "Subcategory in metal-metalloid-nonmetal trend": "Polyatomic Nonmetal"
  },
  {
    "Individual": "Sulfur",
    "Melting Point (degrees C)": 115,
    "Density (kg/m cubed)": 2070,
    "Price (Pounds Sterling per 100g)": 1.3,
    "Discovery Date": "2,000 BC",
    "Size of Atom (pm)": 360,
    "Symbol": "S",
    "Atomic Number": 16,
    "Subcategory in metal-metalloid-nonmetal trend": "Polyatomic Nonmetal"
  },
  {
    "Individual": "Chlorine",
    "Melting Point (degrees C)": -102,
    "Density (kg/m cubed)": 2.9,
    "Price (Pounds Sterling per 100g)": 18,
    "Discovery Date": 1774,
    "Size of Atom (pm)": 350,
    "Symbol": "Cl",
    "Atomic Number": 17,
    "Subcategory in metal-metalloid-nonmetal trend": "Diatomic Nonmetal"
  },
  {
    "Individual": "Potassium",
    "Melting Point (degrees C)": 64,
    "Density (kg/m cubed)": 862,
    "Price (Pounds Sterling per 100g)": 190,
    "Discovery Date": 1807,
    "Size of Atom (pm)": 550,
    "Symbol": "K",
    "Atomic Number": 19,
    "Subcategory in metal-metalloid-nonmetal trend": "Alkali Metal"
  },
  {
    "Individual": "Calcium",
    "Melting Point (degrees C)": 842,
    "Density (kg/m cubed)": 1550,
    "Price (Pounds Sterling per 100g)": 20,
    "Discovery Date": 1808,
    "Size of Atom (pm)": 462,
    "Symbol": "Ca",
    "Atomic Number": 20,
    "Subcategory in metal-metalloid-nonmetal trend": "Alkaline Earth Metal"
  },
  {
    "Individual": "Iron",
    "Melting Point (degrees C)": 1538,
    "Density (kg/m cubed)": 7874,
    "Price (Pounds Sterling per 100g)": 1.9,
    "Discovery Date": "2,500 BC",
    "Size of Atom (pm)": 408,
    "Symbol": "Fe",
    "Atomic Number": 26,
    "Subcategory in metal-metalloid-nonmetal trend": "Transition Metal"
  },
  {
    "Individual": "Copper",
    "Melting Point (degrees C)": 1085,
    "Density (kg/m cubed)": 8960,
    "Price (Pounds Sterling per 100g)": 4.7,
    "Discovery Date": "9,000 BC",
    "Size of Atom (pm)": 392,
    "Symbol": "Cu",
    "Atomic Number": 29,
    "Subcategory in metal-metalloid-nonmetal trend": "Transition Metal"
  },
  {
    "Individual": "Arsenic",
    "Melting Point (degrees C)": 817,
    "Density (kg/m cubed)": 5780,
    "Price (Pounds Sterling per 100g)": 1100,
    "Discovery Date": 1250,
    "Size of Atom (pm)": 370,
    "Symbol": "As",
    "Atomic Number": 33,
    "Subcategory in metal-metalloid-nonmetal trend": "Metalloid"
  },
  {
    "Individual": "Europium",
    "Melting Point (degrees C)": 822,
    "Density (kg/m cubed)": 5243,
    "Price (Pounds Sterling per 100g)": 15000,
    "Discovery Date": 1901,
    "Size of Atom (pm)": 470,
    "Symbol": "Eu",
    "Atomic Number": 63,
    "Subcategory in metal-metalloid-nonmetal trend": "Lanthanide"
  },
  {
    "Individual": "Osmium",
    "Melting Point (degrees C)": 3033,
    "Density (kg/m cubed)": 22590,
    "Price (Pounds Sterling per 100g)": 16000,
    "Discovery Date": 1803,
    "Size of Atom (pm)": 432,
    "Symbol": "Os",
    "Atomic Number": 76,
    "Subcategory in metal-metalloid-nonmetal trend": "Transition Metal"
  },
  {
    "Individual": "Gold",
    "Melting Point (degrees C)": 1064,
    "Density (kg/m cubed)": 19320,
    "Price (Pounds Sterling per 100g)": 8600,
    "Discovery Date": "3,000 BC",
    "Size of Atom (pm)": 428,
    "Symbol": "Au",
    "Atomic Number": 79,
    "Subcategory in metal-metalloid-nonmetal trend": "Transition Metal"
  },
  {
    "Individual": "Mercury",
    "Melting Point (degrees C)": -39,
    "Density (kg/m cubed)": 13546,
    "Price (Pounds Sterling per 100g)": 11,
    "Discovery Date": "1,500 BC",
    "Size of Atom (pm)": 446,
    "Symbol": "Hg",
    "Atomic Number": 80,
    "Subcategory in metal-metalloid-nonmetal trend": "Transition Metal"
  },
  {
    "Individual": "Lead",
    "Melting Point (degrees C)": 327,
    "Density (kg/m cubed)": 11350,
    "Price (Pounds Sterling per 100g)": 2.6,
    "Discovery Date": "1,000 BC",
    "Size of Atom (pm)": 404,
    "Symbol": "Pb",
    "Atomic Number": 82,
    "Subcategory in metal-metalloid-nonmetal trend": "Post-transition Metal"
  }
]}